article proton subatomic particle uses proton disambiguation

proton


quark content proton color assignment individual quarks arbitrary three colors must present forces quarks mediated gluons



classification
baryon


composition
quarks quark


statistics
fermionic


interactions
gravity electromagnetic weak strong


symbol



antiparticle
antiproton


theorized
william prout 1815


discovered
eugen goldstein 1886 ernest rutherford 1917–1919 named 1920


mass

6973167262189800000♠167262189821×10−27
7002938272081300000♠938272081358 mevc22
7000100727646687900♠100727646687991


mean lifetime
7036662709600000000♠21×1029 years stable


electric charge
6981160217648700000♠1
6981160217662079999♠1602176620898×10−19


charge radius
6999875100000000000♠0875161


electric dipole moment
6976540000000000000♠54×10−24 e⋅cm


electric polarizability
6997119999999999999♠1206×10−3


magnetic moment

6974141060678730000♠1410606787397×10−26 j⋅t−12
6997152103220530000♠1521032205346×10−3
7000279284735079999♠2792847350885


magnetic polarizability
6996190000000000000♠195×10−4


spin



isospin



parity



condensed
1212


proton subatomic particle symbol positive electric charge elementary charge mass slightly less neutron protons neutrons masses approximately atomic mass unit collectively referred nucleons
protons present nucleus every atom necessary part nucleus number protons nucleus defining property element referred atomic number represented symbol since element unique number protons element unique atomic number
word proton greek first name given hydrogen nucleus ernest rutherford 1920 previous years rutherford discovered hydrogen nucleus known lightest nucleus could extracted nuclei nitrogen atomic collisions protons therefore candidate fundamental particle hence building block nitrogen heavier atomic nuclei
modern standard model particle physics protons hadrons like neutrons nucleon particles present atomic nuclei composed three quarks although protons originally considered fundamental elementary particles known composed three valence quarks quarks charge quark charge rest masses quarks contribute protons mass however3 remainder protons mass quantum chromodynamics binding energy includes kinetic energy quarks energy gluon fields bind quarks together protons fundamental particles possess physical size though definite root mean square charge radius proton 084–087 6984840000000000000♠084×10−15 6984870000000000000♠087×10−15
sufficiently temperatures free protons bind electrons however character bound protons change remain protons fast proton moving matter slow interactions electrons nuclei captured electron cloud atom result protonated atom chemical compound hydrogen vacuum free electrons present sufficiently slow proton pick single free electron becoming neutral hydrogen atom chemically free radical free hydrogen atoms tend react chemically many types atoms sufficiently energies free hydrogen atoms react form neutral hydrogen molecules common molecular component molecular clouds interstellar space



contents


description
history
stability
quarks mass proton
charge radius
interaction free protons ordinary matter
proton chemistry

atomic number
hydrogen
proton nuclear magnetic resonance


human exposure
antiproton
also
references
external links



descriptionedit



unsolved problem physics
quarks gluons carry spin protons
unsolved problems physics



protons spin½ fermions composed three valence quarks6 making baryons subtype hadrons quarks quark proton held together strong force mediated gluons721–22a modern perspective proton composed valence quarks gluons transitory pairs quarks protons approximately exponentially decaying positive charge distribution mean square radius
protons neutrons nucleons bound together nuclear force form atomic nuclei nucleus common isotope hydrogen atom chemical symbol lone proton nuclei heavy hydrogen isotopes deuterium tritium contain proton bound neutrons respectively types atomic nuclei composed protons various numbers neutrons
historyedit
concept hydrogenlike particle constituent atoms developed long period early 1815 william prout proposed atoms composed hydrogen atoms called protyles based simplistic interpretation early values atomic weights prouts hypothesis disproved accurate values measured939–42




ernest rutherford first solvay conference 1911






proton detected isopropanol cloud chamber


1886 eugen goldstein discovered canal rays also known anode rays showed positively charged particles ions produced gases however since particles different gases different values chargetomass ratio could identified single particle unlike negative electrons discovered thomson wilhelm wien 1898 identified hydrogen particle highest chargetomass ratio ionized gases10
following discovery atomic nucleus ernest rutherford 1911 antonius broek proposed place element periodic table atomic number equal nuclear charge confirmed experimentally henry moseley 1913 using xray spectra
1917 experiments reported 1919 rutherford proved hydrogen nucleus present nuclei result usually described discovery protons11 rutherford earlier learned produce hydrogen nuclei type radiation produced product impact alpha particles nitrogen recognize unique penetration signature appearance scintillation detectors experiments begun rutherford noticed alpha particles shot mostly nitrogen scintillation detectors showed signatures typical hydrogen nuclei product experimentation rutherford traced reaction nitrogen found alphas produced pure nitrogen effect larger rutherford determined hydrogen could come nitrogen therefore nitrogen must contain hydrogen nuclei hydrogen nucleus knocked impact alpha particle producing oxygen17 process first reported nuclear reaction reaction would later observed happening directly cloud chamber 1925
rutherford knew hydrogen simplest lightest element influenced prouts hypothesis hydrogen building block elements discovery hydrogen nucleus present nuclei elementary particle rutherford give hydrogen nucleus special name particle since suspected hydrogen lightest element contained particles named fundamental building block nucleus proton neuter singular greek word first πρῶτον however rutherford also mind word protyle used prout rutherford spoke british association advancement science cardiff meeting beginning august 192012 rutherford asked oliver lodge name positive hydrogen nucleus avoid confusion neutral hydrogen atom initially suggested proton prouton prout13 rutherford later reported meeting accepted suggestion hydrogen nucleus named proton following prouts word protyle14 first word proton scientific literature appeared 192015
recent research shown thunderstorms produce protons energies several tens mev1617
protons routinely used accelerators proton therapy various particle physics experiments powerful example large hadron collider
july 2017 paper researchers measured mass proton 7000100727646658300♠10072764665831529 atomic mass units values parentheses statistical systematic uncertainties respectively lower measurements codata 2014 value three standard deviations1819
stabilityedit
main article proton decay



unsolved problem physics
protons fundamentally stable decay finite lifetime predicted extensions standard model
unsolved problems physics



free proton proton bound nucleons electrons stable particle observed break spontaneously particles free protons found naturally number situations energies temperatures high enough separate electrons affinity free protons exist plasmas temperatures high allow combine electrons free protons high energy velocity make cosmic rays propagate vacuum interstellar distances free protons emitted directly atomic nuclei rare types radioactive decay protons also result along electrons antineutrinos radioactive decay free neutrons unstable
spontaneous decay free protons never observed protons therefore considered stable particles according standard model however grand unified theories guts particle physics predict proton decay take place lifetimes 1031 1036 years experimental searches established lower bounds mean lifetime proton various assumed decay products202122
experiments superkamiokande detector japan gave lower limits proton mean lifetime 7041208280159999999♠66×1033 years decay antimuon neutral pion 7041258772319999999♠82×1033 years decay positron neutral pion23 another experiment sudbury neutrino observatory canada searched gamma rays resulting residual nuclei resulting decay proton oxygen16 experiment designed detect decay product established lower limit proton lifetime 7036662709600000000♠21×1029 years24
however protons known transform neutrons process electron capture also called inverse beta decay free protons process occur spontaneously energy supplied equation




process reversible neutrons convert back protons beta decay common form radioactive decay fact free neutron decays mean lifetime minutes
quarks mass protonedit
quantum chromodynamics modern theory nuclear force mass protons neutrons explained special relativity mass proton 80–100 times greater rest masses quarks make gluons zero rest mass extra energy quarks gluons region within proton compared rest energy quarks alone vacuum accounts almost mass rest mass proton thus invariant mass system moving quarks gluons make particle systems even energy massless particles still measured part rest mass system
terms used referring mass quarks make protons current quark mass refers mass quark constituent quark mass refers current quark mass plus mass gluon particle field surrounding quark25285–286 26150–151 masses typically different values noted protons mass comes gluons bind current quarks together rather quarks gluons inherently massless possess energy—to specific quantum chromodynamics binding energy qcbe—and contributes greatly overall mass protons mass special relativity proton mass approximately mevc2 rest mass three valence quarks contributes mevc2 much remainder attributed gluons qcbe272829
internal dynamics protons complicated determined quarks exchanging gluons interacting various vacuum condensates lattice provides calculating mass proton directly theory accuracy principle recent calculations3031 claim mass determined better accuracy even accuracy figure dürr al31 claims still controversial calculations cannot done quarks light real world means predictions found process extrapolation introduce systematic errors32 hard tell whether errors controlled properly quantities compared experiment masses hadrons known advance
recent calculations performed massive supercomputers noted boffi pasquini detailed description nucleon structure still missing longdistance behavior requires nonperturbative andor numerical treatment33 conceptual approaches structure protons topological soliton approach originally tony skyrme accurate adsqcd approach extends include string theory gluons34 various qcdinspired models like model constituent quark model popular 1980s rules allow rough approximate mass calculations35 methods accuracy bruteforce lattice methods least
charge radiusedit



unsolved problem physics
true charge radius proton
unsolved problems physics



main article proton radius puzzle
problem defining radius atomic nucleus proton similar problem atomic radius neither atoms nuclei definite boundaries however nucleus modeled sphere positive charge interpretation electron scattering experiments definite boundary nucleus electrons range crosssections mean taken qualification root mean square arises nuclear crosssection proportional square radius determining electron scattering
internationally accepted value protons charge radius 6984876800000000000♠08768 orders magnitude comparison sizes value based measurements involving proton electron namely electron scattering measurements complex calculation involving scattering cross section based rosenbluth equation momentumtransfer cross section studies atomic energy levels hydrogen deuterium
however 2010 international research team published proton charge radius measurement lamb shift muonic hydrogen exotic atom made proton negatively charged muon muon times heaver electron broglie wavelength correspondingly shorter smaller atomic orbital much sensitive protons charge radius allows precise measurement measurement rootmeansquare charge radius proton 6984841840000000000♠08418467 differs standard deviations codata value 6984876800000000000♠0876869 fm36 january 2013 updated value charge radius proton—6984840870000000000♠08408739 fm—was published precision improved times increasing significance discrepancy 7σ37 2014 codata adjustment slightly reduced recommended value proton radius computed using electron measurements 6984875100000000000♠0875161 leaves discrepancy
international research team obtained result paul scherrer institut villigen includes scientists planck institute quantum optics ludwigmaximiliansuniversität institut strahlwerkzeuge universität stuttgart university coimbra portugal3839 team attempting explain discrepancy reexamining results previous highprecision measurements complex calculations involving scattering cross section errors found measurements calculations could necessary reexamine worlds precise besttested fundamental theory quantum electrodynamics38 proton radius remains puzzle 201740 perhaps discrepancy physics explanation ordinary physics effect missed41
radius linked form factor momentum transfer cross section atomic form factor modifies cross section corresponding pointlike proton










































































































































displaystyle beginalignedre26frac dgedq2bigg vert q20frac dsigma domega frac dsigma domega bigg vert pointg2q2endaligned



atomic form factor related wave function density target










































displaystyle gq2int eiqrpsi r2dr3



form factor split electric magnetic form factors written linear combinations dirac pauli form factors41












































































































































































displaystyle beginalignedgmfdfpgefdtau fpfrac dsigma domega frac dsigma domega bigg vert nsfrac 11tau leftge2leftq2rightfrac epsilon gm2leftq2rightrightendaligned



interaction free protons ordinary matteredit
although protons affinity oppositely charged electrons relatively lowenergy interaction free protons must lose sufficient velocity kinetic energy order become closely associated bound electrons high energy protons traversing ordinary matter lose energy collisions atomic nuclei ionization atoms removing electrons slowed sufficiently captured electron cloud normal atom
however association electron character bound proton changed remains proton attraction lowenergy free protons electrons present normal matter electrons normal atoms causes free protons stop form chemical bond atom bond happens sufficiently cold temperature comparable temperatures surface type atom thus interaction type normal nonplasma matter lowvelocity free protons attracted electrons atom molecule come contact causing proton molecule combine molecules said protonated chemically often result become socalled bronsted acids
proton chemistryedit
atomic numberedit
chemistry number protons nucleus atom known atomic number determines chemical element atom belongs example atomic number chlorine means chlorine atom protons atoms protons chlorine atoms chemical properties atom determined number negatively charged electrons neutral atoms equal number positive protons total charge zero example neutral chlorine atom protons electrons whereas anion protons electrons total charge
atoms given element necessarily identical however number neutrons vary form different isotopes energy levels differ forming different nuclear isomers example stable isotopes chlorine
17cl neutrons
17cl neutrons
hydrogen ionedit
also hydron chemistry




protium common isotope hydrogen consists proton electron neutrons term hydrogen implies hatom lost electron causing proton remain thus chemistry terms proton hydrogen protium isotope used synonymously




proton unique chemical species bare nucleus consequence independent existence condensed state invariably found bound pair electrons another atom

ross stewart proton application organic chemistry 1985
chemistry term proton refers hydrogen since atomic number hydrogen hydrogen electrons corresponds bare nucleus consisting proton neutrons abundant isotope protium
proton bare charge 164000 radius hydrogen atom extremely reactive chemically free proton thus extremely short lifetime chemical systems liquids reacts immediately electron cloud available molecule aqueous solution forms hydronium turn solvated water molecules clusters h5o2 h9o442
transfer acid–base reaction usually referred proton transfer acid referred proton donor base proton acceptor likewise biochemical terms proton pump proton channel refer movement hydrated ions
produced removing electron deuterium atom known deuteron proton likewise removing electron tritium atom produces triton
proton nuclear magnetic resonance nmredit
also chemistry term proton refers observation hydrogen1 nuclei mostly organic molecules nuclear magnetic resonance method uses spin proton value onehalf name refers examination protons occur protium hydrogen1 atoms compounds imply free protons exist compound studied
human exposureedit
main article effect spaceflight human body
also proton therapy
apollo lunar surface experiments packages alsep determined particles solar wind electrons protons approximately equal numbers4344

solar wind spectrometer made continuous measurements possible measure earths magnetic field affects arriving solar wind particles twothirds orbit moon outside earths magnetic field times typical proton density cubic centimeter protons velocities kilometers second five days month moon inside earths geomagnetic tail typically solar wind particles detectable remainder lunar orbit moon transitional region known magnetosheath earths magnetic field affects solar wind completely exclude region particle flux reduced typical proton velocities kilometers second lunar night spectrometer shielded solar wind moon solar wind particles measured43

protons also extrasolar origin galactic cosmic rays make total particle flux protons often higher energy solar wind protons intensity uniform less variable protons coming production heavily affected solar proton events coronal mass ejections
research performed doserate effects protons typically found space travel human health4445 specific hopes identify specific chromosomes damaged define damage cancer development proton exposure44 another study looks determining effects exposure proton irradiation neurochemical behavioral endpoints including dopaminergic functioning amphetamineinduced conditioned taste aversion learning spatial learning memory measured morris water maze45 electrical charging spacecraft interplanetary proton bombardment also proposed study46 many studies pertain space travel including galactic cosmic rays possible health effects solar proton event exposure
american biostack soviet biorack space travel experiments demonstrated severity molecular damage induced heavy ions micro organisms including artemia cysts47
antiprotonedit
main article antiproton
cptsymmetry puts strong constraints relative properties particles antiparticles therefore open stringent tests example charges proton antiproton must exactly zero equality tested part 7008100000000000000♠108 equality masses also tested better part 7008100000000000000♠108 holding antiprotons penning trap equality chargetomass ratio protons antiprotons tested part 7009600000000000000♠6×10948 magnetic moment antiprotons measured error 6997800000000000000♠8×10−3 nuclear bohr magnetons found equal opposite proton
alsoedit


physics portal




fermion field
hydrogen
hydron chemistry
list particles
protonproton chain reaction
quark model
proton spin crisis


referencesedit


codata value proton mass nist reference constants units uncertainty national institute standards technology june 2015 retrieved 20150925 2014 codata recommended values
mohr taylor newell 2015 2014 codata recommended values fundamental physical constants national institute standards technology gaithersburg
adrian april 2010 mass common quark finally nailed science magazine american association advancement science retrieved september 2014
proton size puzzle reinforced paul shearer institute january 2013
antognini 2013 proton structure measurement 2s2p transition frequencies muonic hydrogen science 6118 417–20 bibcode2013sci339417a doi101126science1230016 pmid 23349284
adair 1989 great design particles fields creation oxford university press
cottingham greenwood 1986 introduction nuclear physics cambridge university press isbn 9780521657334
basdevant rich spiro 2005 fundamentals nuclear physics springer isbn 0387016724
department chemistry biochemistry ucla eric scerri lecturer periodic table story significance story significance oxford university press isbn 9780195345674
wilhelm wien über positive elektronen existenz hoher atomgewichte annalen physik band 1904 669–677
petrucci harwood herring 2002 general chemistry
meeting report announcement
romer 1997 proton prouton rutherford depths atom phys bibcode1997amjph65707r doi101119118640
rutherford reported acceptance british association footnote masson 1921 xxiv constitution atoms philosophical magazine series 281–285 doi10108014786442108636219
pais 1986 inward bound oxford press isbn 0198519974 pais believed first science literature word proton occurs physics british association nature 2663 357–358 1920 bibcode1920natur106357 doi101038106357a0
köhn ebert 2015 calculation beams positrons neutrons protons associated terrestrial gammaray flashes geophys atmos 1620–1635 bibcode2015jgrd1201620k doi1010022014jd022229
köhn diniz harakeh muhsin 2017 production mechanisms leptons photons hadrons possible feedback close lightning leaders geophys atmos 1365 bibcode2017jgrd1221365k doi1010022016jd025445
popkin gabriel july 2017 surprise proton lighter thought science
heiße köhlerlanges junck kracke mooser quint ulmer werth blaum sturm july 2017 highprecision measurement protons atomic mass physical review letters 033001 arxiv170606780 physicsatomph bibcode2017phrvl119c3001h doi101103physrevlett119033001
buccella miele rosa santorelli tuzi 1989 upper limit proton lifetime so10 physics letters 178–182 bibcode1989phlb233178b doi1010160370269389906370
mohapatra parida rani 1995 predictions proton lifetime minimal nonsupersymmetric so10 models update physical review 229–235 arxivhepph9404238 bibcode1995phrvd51229l doi101103physrevd51229
proton lifetime longer 1034 years kamioka observatory november 2009
nishino clark hayato iida ikeda kameda kobayashi koshio miura moriyama nakahata nakayama obayashi ogawa sekiya shiozawa suzuki takeda takenaga takeuchi ueno ueshima watanabe yamada hazama higuchi ishihara kajita 2009 search proton decay p→eπ0 p→μπ0 large water cherenkov detector physical review letters 141801 arxiv09030676 bibcode2009phrvl102n1801n doi101103physrevlett102141801 pmid 19392425
ahmed anthony beier bellerive biller boger boulay bowler bowles brice bullard chan chen chen cleveland dalnokiveress dosanjh doucas dragowsky duba duncan dunford dunmore earle elliott evans 2004 constraints nucleon decay invisible modes sudbury neutrino observatory physical review letters 102004 arxivhepex0310030 bibcode2004phrvl92j2004a doi101103physrevlett92102004 pmid 15089201
watson 2004 quantum quark cambridge university press 285–286 isbn 0521829070
timothy paul smith 2003 hidden worlds hunting quarks ordinary matter princeton university press isbn 0691057737
weise green 1984 quarks nuclei world scientific 65–66 isbn 9971966611
ball philip 2008 nuclear masses calculated scratch nature doi101038news20081246 retrieved 2014
reynolds mark 2009 calculating mass proton cnrs international magazine cnrs issn 22705317 retrieved 2014
news report links
durr fodor frison hoelbling hoffmann katz krieg kurth lellouch lippert szabo vulvert 2008 initio determination light hadron masses science 5905 1224–7 arxiv09063599 bibcode2008sci3221224d doi101126science1163233 pmid 19023076
perdrisat punjabi vanderhaeghen 2007 nucleon electromagnetic form factors progress particle nuclear physics 694–764 arxivhepph0612014 bibcode2007prpnp59694p doi101016jppnp200705001
boffi sigfrido pasquini barbara 2007 generalized parton distributions structure nucleon rivista nuovo cimento arxiv07112625 bibcode2007ncimr30387b doi101393ncri2007100257 inactive 20170225
joshua erlich december 2008 recent results adsqcd proceedings conference quark confinement hadron spectrum september 2008 mainz germany arxiv08124976 bibcode2008arxiv08124976e
pietro colangelo alex khodjamirian october 2000 rules modern perspective shifman frontier particle physics handbook world scientific arxivhepph0010175 bibcode2001afppbook1495c doi10114297898128104580033
pohl randolf antognini aldo françois july 2010 size proton nature 7303 213–6 bibcode2010natur466213p doi101038nature09250 pmid 20613837
antognini aldo françois schuhmann karsten january 2013 proton structure measurement 2s2p transition frequencies muonic hydrogen science 6118 417–420 bibcode2013sci339417a doi101126science1230016 pmid 23349284
researchers observes unexpectedly small proton radius precision experiment nano july 2010
proton smaller photonicscom july 2010 retrieved 20100719
conover emily 20170418 theres still dont know proton science news retrieved 20170429
carlson carl 2015 proton radius puzzle progress particle nuclear physics 59–77 arxiv150205314 bibcode2015prpnp8259c doi101016jppnp201501002
headrick diken walters hammer christie myshakin duncan johnson jordan 2005 spectral signatures hydrated proton vibrations water clusters science 5729 1765–69 bibcode2005sci3081765h doi101126science1113094 pmid 15961665
apollo mission lunar planetary institute 2009 retrieved 20090612
space travel cancer linked stony brook researcher secures nasa grant study effects space radiation brookhaven national laboratory december 2007 retrieved 20090612
shukitthale szprengiel pluhar rabin joseph effects proton exposure neurochemistry behavior elseviercospar retrieved 20090612
green frederickson study spacecraft charging exposure interplanetary protons propulsion laboratory retrieved 20090612
planel 2004 space life introduction space biology medicine press 135–138 isbn 0415317592
gabrielse 2006 antiproton mass measurements international journal mass spectrometry 273–280 bibcode2006ijmsp251273g doi101016jijms200602013


external linksedit



wikimedia commons media related proton



particle data group
large hadron collider
eaves laurence copeland padilla antonio tony 2010 shrinking proton sixty symbols brady haran university nottingham












particles physics



elementary




fermions




quarks



quark
antiquark
quark
antiquark
charm quark
antiquark
strange quark
antiquark
quark
antiquark
bottom quark
antiquark





leptons



electron
positron
muon
antimuon

antitau
electron neutrino
electron antineutrino
muon neutrino
muon antineutrino
neutrino
antineutrino








bosons




gauge



photon
gluon
bosons





scalar



higgs boson








others



ghosts





hypothetical




superpartners




gauginos



gluino
gravitino
photino





others



higgsino
neutralino
chargino
axino
sfermion stop squark








others



planck particle
axion
dilaton
dual graviton
graviton
leptoquark
majoron
majorana fermion
magnetic monopole
preon
sterile neutrino
tachyon
bosons
bosons











composite




hadrons




baryons hyperons



nucleon

proton
antiproton
neutron
antineutron


delta baryon
lambda baryon
sigma baryon
baryon
omega baryon





mesons quarkonia



pion
meson
prime mesons
meson
jpsi meson
omega meson
upsilon meson
kaon
meson
meson





exotic hadrons



tetraquark
pentaquark








others



atomic nuclei
atoms
exotic atoms

positronium
muonium
tauonium
onia


superatoms
molecules





hypothetical








hypothetical baryons



hexaquark
skyrmion





hypothetical mesons



glueball
theta meson
meson








others



mesonic molecule
pomeron
diquarks











quasiparticles



davydov soliton
dropleton
exciton
hole
magnon
phonon
plasmaron
plasmon
polariton
polaron
roton
trion





lists



baryons
mesons
particles
quasiparticles
timeline particle discoveries





related



history subatomic physics

timeline


standard model

mathematical formulation


subatomic particles
particles
antiparticles
nuclear physics
eightfold

quark model


exotic matter
massless particle
relativistic particle
virtual particle
wave–particle duality





wikipedia books



hadronic matter
particles standard model
leptons
quarks






physics portal







authority control



41376432
00574364











retrieved httpsenwikipediaorgwindexphptitleprotonoldid817797846 categories protonbaryonscationsnucleonshydrogen physics1910s sciencehidden categories pages dois inactive since 2017pages using deprecated image syntaxwikipedia articles identifiers
